
.Version 8.4.2 of ABINIT 
.(MPI version, prepared for a x86_64_darwin16.6.0_gnu7.1 computer) 

.Copyright (C) 1998-2017 ABINIT group . 
 ABINIT comes with ABSOLUTELY NO WARRANTY.
 It is free software, and you are welcome to redistribute it
 under certain conditions (GNU General Public License,
 see ~abinit/COPYING or http://www.gnu.org/copyleft/gpl.txt).

 ABINIT is a project of the Universite Catholique de Louvain,
 Corning Inc. and other collaborators, see ~abinit/doc/developers/contributors.txt .
 Please read ~abinit/doc/users/acknowledgments.html for suggested
 acknowledgments of the ABINIT effort.
 For more information, see http://www.abinit.org .

.Starting date : Tue 25 Jul 2017.
- ( at 13h33 )
  
- input  file    -> tbase4_8.in
- output file    -> tbase4_8.out
- root for input  files -> tbase4_xi
- root for output files -> tbase4_xo


 DATASET    1 : space group P4/m m m (#123); Bravais tP (primitive tetrag.)
================================================================================
 Values of the parameters that define the memory need for DATASET  1.
     intxc =       0    ionmov =       0      iscf =       7    lmnmax =       3
     lnmax =       3     mgfft =     108  mpssoang =       3    mqgrid =    3001
     natom =       5  nloc_mem =       1    nspden =       1   nspinor =       1
    nsppol =       1      nsym =      16    n1xccc =       0    ntypat =       1
    occopt =       4   xclevel =       1
-    mband =          11        mffmem =           1         mkmem =          20
       mpw =        3188          nfft =       62208          nkpt =          20
 For the susceptibility and dielectric matrices, or tddft :
   mgfft =        64  nbnd_in_blk=     6    nfft =     14400     npw =       121
================================================================================
P This job should need less than                      31.079 Mbytes of memory.
  Rough estimation (10% accuracy) of disk space for files :
_ WF disk file :     10.704 Mbytes ; DEN or POT disk file :      0.477 Mbytes.
================================================================================


 DATASET    2 : space group P4/n m m (#129); Bravais tP (primitive tetrag.)
================================================================================
 Values of the parameters that define the memory need for DATASET  2.
     intxc =       0    ionmov =       0      iscf =       7    lmnmax =       3
     lnmax =       3     mgfft =     125  mpssoang =       3    mqgrid =    3001
     natom =       6  nloc_mem =       1    nspden =       1   nspinor =       1
    nsppol =       1      nsym =      16    n1xccc =       0    ntypat =       1
    occopt =       4   xclevel =       1
-    mband =          12        mffmem =           1         mkmem =          20
       mpw =        3653          nfft =       72000          nkpt =          20
 For the susceptibility and dielectric matrices, or tddft :
   mgfft =        72  nbnd_in_blk=     6    nfft =     16200     npw =       141
================================================================================
P This job should need less than                      36.905 Mbytes of memory.
  Rough estimation (10% accuracy) of disk space for files :
_ WF disk file :     13.380 Mbytes ; DEN or POT disk file :      0.551 Mbytes.
================================================================================


 DATASET    3 : space group P4/m m m (#123); Bravais tP (primitive tetrag.)
================================================================================
 Values of the parameters that define the memory need for DATASET  3.
     intxc =       0    ionmov =       0      iscf =       7    lmnmax =       3
     lnmax =       3     mgfft =     144  mpssoang =       3    mqgrid =    3001
     natom =       7  nloc_mem =       1    nspden =       1   nspinor =       1
    nsppol =       1      nsym =      16    n1xccc =       0    ntypat =       1
    occopt =       4   xclevel =       1
-    mband =          15        mffmem =           1         mkmem =          20
       mpw =        4105          nfft =       82944          nkpt =          20
 For the susceptibility and dielectric matrices, or tddft :
   mgfft =        80  nbnd_in_blk=     6    nfft =     18000     npw =       151
================================================================================
P This job should need less than                      45.734 Mbytes of memory.
  Rough estimation (10% accuracy) of disk space for files :
_ WF disk file :     18.793 Mbytes ; DEN or POT disk file :      0.635 Mbytes.
================================================================================

--------------------------------------------------------------------------------
------------- Echo of variables that govern the present computation ------------
--------------------------------------------------------------------------------
-
- outvars: echo of selected default values                                      
-   iomode0 =  0 , fftalg0 =312 , wfoptalg0 =  0
-
- outvars: echo of global parameters not present in the input file              
-  max_nthreads =    0
-
 -outvars: echo values of preprocessed input variables --------
            acell      7.5055909000E+00  7.5055909000E+00  7.5055909000E+00 Bohr
              amu      2.69815390E+01
      chksymbreak           0
             ecut      2.00000000E+01 Hartree
-          fftalg         312
           iprcel          45
           jdtset        1    2    3
              kpt     -6.25000000E-02  0.00000000E+00  0.00000000E+00
                      -1.87500000E-01  0.00000000E+00  0.00000000E+00
                      -1.25000000E-01  6.25000000E-02  0.00000000E+00
                      -3.12500000E-01  0.00000000E+00  0.00000000E+00
                      -2.50000000E-01  6.25000000E-02  0.00000000E+00
                      -1.87500000E-01  1.25000000E-01  0.00000000E+00
                      -4.37500000E-01  0.00000000E+00  0.00000000E+00
                      -3.75000000E-01  6.25000000E-02  0.00000000E+00
                      -3.12500000E-01  1.25000000E-01  0.00000000E+00
                      -2.50000000E-01  1.87500000E-01  0.00000000E+00
                       5.00000000E-01  6.25000000E-02  0.00000000E+00
                      -4.37500000E-01  1.25000000E-01  0.00000000E+00
                      -3.75000000E-01  1.87500000E-01  0.00000000E+00
                      -3.12500000E-01  2.50000000E-01  0.00000000E+00
                       5.00000000E-01  1.87500000E-01  0.00000000E+00
                      -4.37500000E-01  2.50000000E-01  0.00000000E+00
                      -3.75000000E-01  3.12500000E-01  0.00000000E+00
                       5.00000000E-01  3.12500000E-01  0.00000000E+00
                      -4.37500000E-01  3.75000000E-01  0.00000000E+00
                       5.00000000E-01  4.37500000E-01  0.00000000E+00
         kptrlatt        8    8    0     -8    8    0      0    0    1
          kptrlen      6.00447272E+01
P           mkmem          20
            natom1          5
            natom2          6
            natom3          7
            nband1         11
            nband2         12
            nband3         15
           ndtset           3
            ngfft1         24      24     108
            ngfft2         24      24     125
            ngfft3         24      24     144
             nkpt          20
            nstep          10
             nsym          16
           ntypat           1
              occ1     2.000000  2.000000  2.000000  2.000000  2.000000  2.000000
                       2.000000  1.000000  0.000000  0.000000  0.000000
                       2.000000  2.000000  2.000000  2.000000  2.000000  2.000000
                       2.000000  1.000000  0.000000  0.000000  0.000000
                       2.000000  2.000000  2.000000  2.000000  2.000000  2.000000
                       2.000000  1.000000  0.000000  0.000000  0.000000
                       2.000000  2.000000  2.000000  2.000000  2.000000  2.000000
                       2.000000  1.000000  0.000000  0.000000  0.000000
                       2.000000  2.000000  2.000000  2.000000  2.000000  2.000000
                       2.000000  1.000000  0.000000  0.000000  0.000000
                       2.000000  2.000000  2.000000  2.000000  2.000000  2.000000
                       2.000000  1.000000  0.000000  0.000000  0.000000
                       2.000000  2.000000  2.000000  2.000000  2.000000  2.000000
                       2.000000  1.000000  0.000000  0.000000  0.000000
                       2.000000  2.000000  2.000000  2.000000  2.000000  2.000000
                       2.000000  1.000000  0.000000  0.000000  0.000000
                       2.000000  2.000000  2.000000  2.000000  2.000000  2.000000
                       2.000000  1.000000  0.000000  0.000000  0.000000
                       2.000000  2.000000  2.000000  2.000000  2.000000  2.000000
                       2.000000  1.000000  0.000000  0.000000  0.000000
                       2.000000  2.000000  2.000000  2.000000  2.000000  2.000000
                       2.000000  1.000000  0.000000  0.000000  0.000000
                       2.000000  2.000000  2.000000  2.000000  2.000000  2.000000
                       2.000000  1.000000  0.000000  0.000000  0.000000
                       2.000000  2.000000  2.000000  2.000000  2.000000  2.000000
                       2.000000  1.000000  0.000000  0.000000  0.000000
                       2.000000  2.000000  2.000000  2.000000  2.000000  2.000000
                       2.000000  1.000000  0.000000  0.000000  0.000000
                       2.000000  2.000000  2.000000  2.000000  2.000000  2.000000
                       2.000000  1.000000  0.000000  0.000000  0.000000
                       2.000000  2.000000  2.000000  2.000000  2.000000  2.000000
                       2.000000  1.000000  0.000000  0.000000  0.000000
                       2.000000  2.000000  2.000000  2.000000  2.000000  2.000000
                       2.000000  1.000000  0.000000  0.000000  0.000000
                       2.000000  2.000000  2.000000  2.000000  2.000000  2.000000
                       2.000000  1.000000  0.000000  0.000000  0.000000
                       2.000000  2.000000  2.000000  2.000000  2.000000  2.000000
                       2.000000  1.000000  0.000000  0.000000  0.000000
                       2.000000  2.000000  2.000000  2.000000  2.000000  2.000000
                       2.000000  1.000000  0.000000  0.000000  0.000000
              occ2     2.000000  2.000000  2.000000  2.000000  2.000000  2.000000
                       2.000000  2.000000  2.000000  0.000000  0.000000  0.000000
                       2.000000  2.000000  2.000000  2.000000  2.000000  2.000000
                       2.000000  2.000000  2.000000  0.000000  0.000000  0.000000
                       2.000000  2.000000  2.000000  2.000000  2.000000  2.000000
                       2.000000  2.000000  2.000000  0.000000  0.000000  0.000000
                       2.000000  2.000000  2.000000  2.000000  2.000000  2.000000
                       2.000000  2.000000  2.000000  0.000000  0.000000  0.000000
                       2.000000  2.000000  2.000000  2.000000  2.000000  2.000000
                       2.000000  2.000000  2.000000  0.000000  0.000000  0.000000
                       2.000000  2.000000  2.000000  2.000000  2.000000  2.000000
                       2.000000  2.000000  2.000000  0.000000  0.000000  0.000000
                       2.000000  2.000000  2.000000  2.000000  2.000000  2.000000
                       2.000000  2.000000  2.000000  0.000000  0.000000  0.000000
                       2.000000  2.000000  2.000000  2.000000  2.000000  2.000000
                       2.000000  2.000000  2.000000  0.000000  0.000000  0.000000
                       2.000000  2.000000  2.000000  2.000000  2.000000  2.000000
                       2.000000  2.000000  2.000000  0.000000  0.000000  0.000000
                       2.000000  2.000000  2.000000  2.000000  2.000000  2.000000
                       2.000000  2.000000  2.000000  0.000000  0.000000  0.000000
                       2.000000  2.000000  2.000000  2.000000  2.000000  2.000000
                       2.000000  2.000000  2.000000  0.000000  0.000000  0.000000
                       2.000000  2.000000  2.000000  2.000000  2.000000  2.000000
                       2.000000  2.000000  2.000000  0.000000  0.000000  0.000000
                       2.000000  2.000000  2.000000  2.000000  2.000000  2.000000
                       2.000000  2.000000  2.000000  0.000000  0.000000  0.000000
                       2.000000  2.000000  2.000000  2.000000  2.000000  2.000000
                       2.000000  2.000000  2.000000  0.000000  0.000000  0.000000
                       2.000000  2.000000  2.000000  2.000000  2.000000  2.000000
                       2.000000  2.000000  2.000000  0.000000  0.000000  0.000000
                       2.000000  2.000000  2.000000  2.000000  2.000000  2.000000
                       2.000000  2.000000  2.000000  0.000000  0.000000  0.000000
                       2.000000  2.000000  2.000000  2.000000  2.000000  2.000000
                       2.000000  2.000000  2.000000  0.000000  0.000000  0.000000
                       2.000000  2.000000  2.000000  2.000000  2.000000  2.000000
                       2.000000  2.000000  2.000000  0.000000  0.000000  0.000000
                       2.000000  2.000000  2.000000  2.000000  2.000000  2.000000
                       2.000000  2.000000  2.000000  0.000000  0.000000  0.000000
                       2.000000  2.000000  2.000000  2.000000  2.000000  2.000000
                       2.000000  2.000000  2.000000  0.000000  0.000000  0.000000
              occ3     2.000000  2.000000  2.000000  2.000000  2.000000  2.000000
                       2.000000  2.000000  2.000000  2.000000  1.000000  0.000000
                       0.000000  0.000000  0.000000
                       2.000000  2.000000  2.000000  2.000000  2.000000  2.000000
                       2.000000  2.000000  2.000000  2.000000  1.000000  0.000000
                       0.000000  0.000000  0.000000
                       2.000000  2.000000  2.000000  2.000000  2.000000  2.000000
                       2.000000  2.000000  2.000000  2.000000  1.000000  0.000000
                       0.000000  0.000000  0.000000
                       2.000000  2.000000  2.000000  2.000000  2.000000  2.000000
                       2.000000  2.000000  2.000000  2.000000  1.000000  0.000000
                       0.000000  0.000000  0.000000
                       2.000000  2.000000  2.000000  2.000000  2.000000  2.000000
                       2.000000  2.000000  2.000000  2.000000  1.000000  0.000000
                       0.000000  0.000000  0.000000
                       2.000000  2.000000  2.000000  2.000000  2.000000  2.000000
                       2.000000  2.000000  2.000000  2.000000  1.000000  0.000000
                       0.000000  0.000000  0.000000
                       2.000000  2.000000  2.000000  2.000000  2.000000  2.000000
                       2.000000  2.000000  2.000000  2.000000  1.000000  0.000000
                       0.000000  0.000000  0.000000
                       2.000000  2.000000  2.000000  2.000000  2.000000  2.000000
                       2.000000  2.000000  2.000000  2.000000  1.000000  0.000000
                       0.000000  0.000000  0.000000
                       2.000000  2.000000  2.000000  2.000000  2.000000  2.000000
                       2.000000  2.000000  2.000000  2.000000  1.000000  0.000000
                       0.000000  0.000000  0.000000
                       2.000000  2.000000  2.000000  2.000000  2.000000  2.000000
                       2.000000  2.000000  2.000000  2.000000  1.000000  0.000000
                       0.000000  0.000000  0.000000
                       2.000000  2.000000  2.000000  2.000000  2.000000  2.000000
                       2.000000  2.000000  2.000000  2.000000  1.000000  0.000000
                       0.000000  0.000000  0.000000
                       2.000000  2.000000  2.000000  2.000000  2.000000  2.000000
                       2.000000  2.000000  2.000000  2.000000  1.000000  0.000000
                       0.000000  0.000000  0.000000
                       2.000000  2.000000  2.000000  2.000000  2.000000  2.000000
                       2.000000  2.000000  2.000000  2.000000  1.000000  0.000000
                       0.000000  0.000000  0.000000
                       2.000000  2.000000  2.000000  2.000000  2.000000  2.000000
                       2.000000  2.000000  2.000000  2.000000  1.000000  0.000000
                       0.000000  0.000000  0.000000
                       2.000000  2.000000  2.000000  2.000000  2.000000  2.000000
                       2.000000  2.000000  2.000000  2.000000  1.000000  0.000000
                       0.000000  0.000000  0.000000
                       2.000000  2.000000  2.000000  2.000000  2.000000  2.000000
                       2.000000  2.000000  2.000000  2.000000  1.000000  0.000000
                       0.000000  0.000000  0.000000
                       2.000000  2.000000  2.000000  2.000000  2.000000  2.000000
                       2.000000  2.000000  2.000000  2.000000  1.000000  0.000000
                       0.000000  0.000000  0.000000
                       2.000000  2.000000  2.000000  2.000000  2.000000  2.000000
                       2.000000  2.000000  2.000000  2.000000  1.000000  0.000000
                       0.000000  0.000000  0.000000
                       2.000000  2.000000  2.000000  2.000000  2.000000  2.000000
                       2.000000  2.000000  2.000000  2.000000  1.000000  0.000000
                       0.000000  0.000000  0.000000
                       2.000000  2.000000  2.000000  2.000000  2.000000  2.000000
                       2.000000  2.000000  2.000000  2.000000  1.000000  0.000000
                       0.000000  0.000000  0.000000
           occopt           4
            rprim1     5.0000000000E-01 -5.0000000000E-01  0.0000000000E+00
                       5.0000000000E-01  5.0000000000E-01  0.0000000000E+00
                       0.0000000000E+00  0.0000000000E+00  3.5000000000E+00
            rprim2     5.0000000000E-01 -5.0000000000E-01  0.0000000000E+00
                       5.0000000000E-01  5.0000000000E-01  0.0000000000E+00
                       0.0000000000E+00  0.0000000000E+00  4.0000000000E+00
            rprim3     5.0000000000E-01 -5.0000000000E-01  0.0000000000E+00
                       5.0000000000E-01  5.0000000000E-01  0.0000000000E+00
                       0.0000000000E+00  0.0000000000E+00  4.5000000000E+00
           shiftk      5.00000000E-01  5.00000000E-01  0.00000000E+00
          spgroup1        123
          spgroup2        129
          spgroup3        123
           symrel      1  0  0   0  1  0   0  0  1      -1  0  0   0 -1  0   0  0 -1
                      -1  0  0   0  1  0   0  0 -1       1  0  0   0 -1  0   0  0  1
                      -1  0  0   0 -1  0   0  0  1       1  0  0   0  1  0   0  0 -1
                       1  0  0   0 -1  0   0  0 -1      -1  0  0   0  1  0   0  0  1
                       0  1  0   1  0  0   0  0  1       0 -1  0  -1  0  0   0  0 -1
                       0 -1  0   1  0  0   0  0 -1       0  1  0  -1  0  0   0  0  1
                       0 -1  0  -1  0  0   0  0  1       0  1  0   1  0  0   0  0 -1
                       0  1  0  -1  0  0   0  0 -1       0 -1  0   1  0  0   0  0  1
            tnons1     0.0000000  0.0000000  0.0000000     0.0000000  0.0000000 -0.4285714
                       0.0000000  0.0000000 -0.4285714     0.0000000  0.0000000  0.0000000
                       0.0000000  0.0000000  0.0000000     0.0000000  0.0000000 -0.4285714
                       0.0000000  0.0000000 -0.4285714     0.0000000  0.0000000  0.0000000
                       0.0000000  0.0000000  0.0000000     0.0000000  0.0000000 -0.4285714
                       0.0000000  0.0000000 -0.4285714     0.0000000  0.0000000  0.0000000
                       0.0000000  0.0000000  0.0000000     0.0000000  0.0000000 -0.4285714
                       0.0000000  0.0000000 -0.4285714     0.0000000  0.0000000  0.0000000
            tnons2     0.0000000  0.0000000  0.0000000     0.5000000  0.5000000 -0.3750000
                       0.5000000  0.5000000 -0.3750000     0.0000000  0.0000000  0.0000000
                       0.0000000  0.0000000  0.0000000     0.5000000  0.5000000 -0.3750000
                       0.5000000  0.5000000 -0.3750000     0.0000000  0.0000000  0.0000000
                       0.0000000  0.0000000  0.0000000     0.5000000  0.5000000 -0.3750000
                       0.5000000  0.5000000 -0.3750000     0.0000000  0.0000000  0.0000000
                       0.0000000  0.0000000  0.0000000     0.5000000  0.5000000 -0.3750000
                       0.5000000  0.5000000 -0.3750000     0.0000000  0.0000000  0.0000000
            tnons3     0.0000000  0.0000000  0.0000000     0.0000000  0.0000000 -0.3333333
                       0.0000000  0.0000000 -0.3333333     0.0000000  0.0000000  0.0000000
                       0.0000000  0.0000000  0.0000000     0.0000000  0.0000000 -0.3333333
                       0.0000000  0.0000000 -0.3333333     0.0000000  0.0000000  0.0000000
                       0.0000000  0.0000000  0.0000000     0.0000000  0.0000000 -0.3333333
                       0.0000000  0.0000000 -0.3333333     0.0000000  0.0000000  0.0000000
                       0.0000000  0.0000000  0.0000000     0.0000000  0.0000000 -0.3333333
                       0.0000000  0.0000000 -0.3333333     0.0000000  0.0000000  0.0000000
           toldfe      1.00000000E-06 Hartree
           tsmear      4.00000000E-02 Hartree
            typat1     1  1  1  1  1
            typat2     1  1  1  1  1  1
            typat3     1  1  1  1  1  1  1
              wtk        0.03125    0.03125    0.06250    0.03125    0.06250    0.06250
                         0.03125    0.06250    0.06250    0.06250    0.03125    0.06250
                         0.06250    0.06250    0.03125    0.06250    0.06250    0.03125
                         0.06250    0.03125
           xangst1     0.0000000000E+00  0.0000000000E+00  0.0000000000E+00
                       0.0000000000E+00  1.9858938206E+00  1.9858938206E+00
                       0.0000000000E+00  0.0000000000E+00  3.9717876413E+00
                       0.0000000000E+00  1.9858938206E+00  5.9576814619E+00
                       0.0000000000E+00  0.0000000000E+00  7.9435752826E+00
           xangst2     0.0000000000E+00  0.0000000000E+00  0.0000000000E+00
                       0.0000000000E+00  1.9858938206E+00  1.9858938206E+00
                       0.0000000000E+00  0.0000000000E+00  3.9717876413E+00
                       0.0000000000E+00  1.9858938206E+00  5.9576814619E+00
                       0.0000000000E+00  0.0000000000E+00  7.9435752826E+00
                       0.0000000000E+00  1.9858938206E+00  9.9294691032E+00
           xangst3     0.0000000000E+00  0.0000000000E+00  0.0000000000E+00
                       0.0000000000E+00  1.9858938206E+00  1.9858938206E+00
                       0.0000000000E+00  0.0000000000E+00  3.9717876413E+00
                       0.0000000000E+00  1.9858938206E+00  5.9576814619E+00
                       0.0000000000E+00  0.0000000000E+00  7.9435752826E+00
                       0.0000000000E+00  1.9858938206E+00  9.9294691032E+00
                       0.0000000000E+00  0.0000000000E+00  1.1915362924E+01
            xcart1     0.0000000000E+00  0.0000000000E+00  0.0000000000E+00
                       0.0000000000E+00  3.7527954500E+00  3.7527954500E+00
                       0.0000000000E+00  0.0000000000E+00  7.5055909000E+00
                       0.0000000000E+00  3.7527954500E+00  1.1258386350E+01
                       0.0000000000E+00  0.0000000000E+00  1.5011181800E+01
            xcart2     0.0000000000E+00  0.0000000000E+00  0.0000000000E+00
                       0.0000000000E+00  3.7527954500E+00  3.7527954500E+00
                       0.0000000000E+00  0.0000000000E+00  7.5055909000E+00
                       0.0000000000E+00  3.7527954500E+00  1.1258386350E+01
                       0.0000000000E+00  0.0000000000E+00  1.5011181800E+01
                       0.0000000000E+00  3.7527954500E+00  1.8763977250E+01
            xcart3     0.0000000000E+00  0.0000000000E+00  0.0000000000E+00
                       0.0000000000E+00  3.7527954500E+00  3.7527954500E+00
                       0.0000000000E+00  0.0000000000E+00  7.5055909000E+00
                       0.0000000000E+00  3.7527954500E+00  1.1258386350E+01
                       0.0000000000E+00  0.0000000000E+00  1.5011181800E+01
                       0.0000000000E+00  3.7527954500E+00  1.8763977250E+01
                       0.0000000000E+00  0.0000000000E+00  2.2516772700E+01
             xred1     0.0000000000E+00  0.0000000000E+00  0.0000000000E+00
                      -5.0000000000E-01  5.0000000000E-01  1.4285714286E-01
                       0.0000000000E+00  0.0000000000E+00  2.8571428571E-01
                      -5.0000000000E-01  5.0000000000E-01  4.2857142857E-01
                       0.0000000000E+00  0.0000000000E+00  5.7142857143E-01
             xred2     0.0000000000E+00  0.0000000000E+00  0.0000000000E+00
                      -5.0000000000E-01  5.0000000000E-01  1.2500000000E-01
                       0.0000000000E+00  0.0000000000E+00  2.5000000000E-01
                      -5.0000000000E-01  5.0000000000E-01  3.7500000000E-01
                       0.0000000000E+00  0.0000000000E+00  5.0000000000E-01
                      -5.0000000000E-01  5.0000000000E-01  6.2500000000E-01
             xred3     0.0000000000E+00  0.0000000000E+00  0.0000000000E+00
                      -5.0000000000E-01  5.0000000000E-01  1.1111111111E-01
                       0.0000000000E+00  0.0000000000E+00  2.2222222222E-01
                      -5.0000000000E-01  5.0000000000E-01  3.3333333333E-01
                       0.0000000000E+00  0.0000000000E+00  4.4444444444E-01
                      -5.0000000000E-01  5.0000000000E-01  5.5555555556E-01
                       0.0000000000E+00  0.0000000000E+00  6.6666666667E-01
            znucl       13.00000

================================================================================

 chkinp: Checking input parameters for consistency, jdtset=   1.

 chkinp: Checking input parameters for consistency, jdtset=   2.

 chkinp: Checking input parameters for consistency, jdtset=   3.

================================================================================
== DATASET  1 ==================================================================
-   nproc =    1

 Exchange-correlation functional for the present dataset will be:
  LDA: new Teter (4/93) with spin-polarized option - ixc=1
 Citation for XC functional:
  S. Goedecker, M. Teter, J. Huetter, PRB 54, 1703 (1996)

 Real(R)+Recip(G) space primitive vectors, cartesian coordinates (Bohr,Bohr^-1):
 R(1)=  3.7527955 -3.7527954  0.0000000  G(1)=  0.1332340 -0.1332340  0.0000000
 R(2)=  3.7527955  3.7527955  0.0000000  G(2)=  0.1332340  0.1332340  0.0000000
 R(3)=  0.0000000  0.0000000 26.2695682  G(3)=  0.0000000  0.0000000  0.0380669
 Unit cell volume ucvol=  7.3993354E+02 bohr^3
 Angles (23,13,12)=  9.00000000E+01  9.00000000E+01  9.00000000E+01 degrees

 getcut: wavevector=  0.0000  0.0000  0.0000  ngfft=  24  24 108
         ecut(hartree)=     20.000   => boxcut(ratio)=   2.04216

--- Pseudopotential description ------------------------------------------------
- pspini: atom type   1  psp file is ../psps/13al.981214.fhi
- pspatm: opening atomic psp file    ../psps/13al.981214.fhi
- Aluminum, fhi98PP : Hamann-type, LDA CA PerdewWang, l=2 local
- 13.00000   3.00000    981214                znucl, zion, pspdat
    6    7    2    2       493   0.00000      pspcod,pspxc,lmax,lloc,mmax,r2well
  No XC core correction.
  1.024700          amesh (Hamman grid)
 pspatm: epsatm=    1.36305739
         --- l  ekb(1:nproj) -->
             0    1.768744
             1    0.900554
 pspatm: atomic psp has been read  and splines computed

   1.02229304E+02                                ecore*ucvol(ha*bohr**3)
--------------------------------------------------------------------------------

_setup2: Arith. and geom. avg. npw (full set) are    3162.344    3162.308

================================================================================

     iter   Etot(hartree)      deltaE(h)  residm     vres2
 ETOT  1  -10.289928563821    -1.029E+01 1.319E-02 5.974E+03
 ETOT  2  -10.449344124166    -1.594E-01 9.072E-04 4.010E+02
 ETOT  3  -10.459634589639    -1.029E-02 5.460E-04 2.450E+00
 ETOT  4  -10.459715994231    -8.140E-05 1.700E-04 1.282E-01
 ETOT  5  -10.459719539982    -3.546E-06 8.535E-05 1.213E-05
 ETOT  6  -10.459719690779    -1.508E-07 2.560E-05 5.368E-06
 ETOT  7  -10.459719798233    -1.075E-07 1.904E-05 2.413E-07

 At SCF step    7, etot is converged : 
  for the second time, diff in etot=  1.075E-07 < toldfe=  1.000E-06

 Cartesian components of stress tensor (hartree/bohr^3)
  sigma(1 1)=  8.56944706E-05  sigma(3 2)=  0.00000000E+00
  sigma(2 2)=  8.56944706E-05  sigma(3 1)=  0.00000000E+00
  sigma(3 3)= -2.97110374E-05  sigma(2 1)=  0.00000000E+00

 Integrated electronic density in atomic spheres:
 ------------------------------------------------
 Atom  Sphere_radius  Integrated_density
    1        2.00000          0.87599675
    2        2.00000          0.92619127
    3        2.00000          0.92312007
    4        2.00000          0.92618406
    5        2.00000          0.88436818
================================================================================

 ----iterations are completed or convergence reached----

 Mean square residual over all n,k,spin=   2.5763E-07; max=  1.9043E-05
 reduced coordinates (array xred) for    5 atoms
       0.000000000000      0.000000000000      0.000000000000
      -0.500000000000      0.500000000000      0.142857142857
       0.000000000000      0.000000000000      0.285714285714
      -0.500000000000      0.500000000000      0.428571428571
       0.000000000000      0.000000000000      0.571428571429
 rms dE/dt=  1.6676E-02; max dE/dt=  4.0916E-02; dE/dt below (all hartree)
    1       0.000000000000      0.000000000000      0.040916078122
    2       0.000000000000      0.000000000000     -0.020283831953
    3       0.000000000000      0.000000000000      0.000000000000
    4       0.000000000000      0.000000000000      0.020283831953
    5       0.000000000000      0.000000000000     -0.040916078122

 cartesian coordinates (angstrom) at end:
    1      0.00000000000000     0.00000000000000     0.00000000000000
    2      0.00000000000000     1.98589382064025     1.98589382064025
    3      0.00000000000000     0.00000000000000     3.97178764128050
    4      0.00000000000000     1.98589382064025     5.95768146192076
    5      0.00000000000000     0.00000000000000     7.94357528256101

 cartesian forces (hartree/bohr) at end:
    1     -0.00000000000000    -0.00000000000000    -0.00155754665965
    2     -0.00000000000000    -0.00000000000000     0.00077214181203
    3     -0.00000000000000    -0.00000000000000     0.00000000000000
    4     -0.00000000000000    -0.00000000000000    -0.00077214181203
    5     -0.00000000000000    -0.00000000000000     0.00155754665965
 frms,max,avg= 6.3478653E-04 1.5575467E-03   0.000E+00  0.000E+00  0.000E+00 h/b

 cartesian forces (eV/Angstrom) at end:
    1     -0.00000000000000    -0.00000000000000    -0.08009226275735
    2     -0.00000000000000    -0.00000000000000     0.03970512505155
    3     -0.00000000000000    -0.00000000000000     0.00000000000000
    4     -0.00000000000000    -0.00000000000000    -0.03970512505155
    5     -0.00000000000000    -0.00000000000000     0.08009226275735
 frms,max,avg= 3.2642033E-02 8.0092263E-02   0.000E+00  0.000E+00  0.000E+00 e/A
 length scales=  7.505590900000  7.505590900000  7.505590900000 bohr
              =  3.971787641281  3.971787641281  3.971787641281 angstroms
 prteigrs : about to open file tbase4_xo_DS1_EIG
 Fermi (or HOMO) energy (hartree) =   0.16413   Average Vxc (hartree)=  -0.29183
 Eigenvalues (hartree) for nkpt=  20  k points:
 kpt#   1, nband= 11, wtk=  0.03125, kpt= -0.0625  0.0000  0.0000 (reduced coord)
  -0.24202   -0.20691   -0.14995   -0.07436    0.01655    0.09057    0.19221    0.31855
   0.32102    0.33281    0.35170
      occupation numbers for kpt#   1
   2.00000    2.00000    2.00000    2.00000    2.00001    2.05707    0.07751    0.00000
   0.00000    0.00000    0.00000
 prteigrs : prtvol=0 or 1, do not print more k-points.


--------------------------------------------------------------------------------
 Components of total free energy (in Hartree) :

    Kinetic energy  =  4.19519183610191E+00
    Hartree energy  =  8.10906008438690E+00
    XC energy       = -3.95286148864891E+00
    Ewald energy    = -3.80934184025056E+00
    PspCore energy  =  1.38160115627589E-01
    Loc. psp. energy= -1.74078876800046E+01
    NL   psp  energy=  2.26909025256759E+00
    >>>>> Internal E= -1.04585887202201E+01

    -kT*entropy     = -1.13107801302777E-03
    >>>>>>>>> Etotal= -1.04597197982332E+01

 Other information on the energy :
    Total energy(eV)= -2.84623450497764E+02 ; Band energy (Ha)=   1.2480068094E-01
--------------------------------------------------------------------------------

 Cartesian components of stress tensor (hartree/bohr^3)
  sigma(1 1)=  8.56944706E-05  sigma(3 2)=  0.00000000E+00
  sigma(2 2)=  8.56944706E-05  sigma(3 1)=  0.00000000E+00
  sigma(3 3)= -2.97110374E-05  sigma(2 1)=  0.00000000E+00

-Cartesian components of stress tensor (GPa)         [Pressure= -1.3894E+00 GPa]
- sigma(1 1)=  2.52121795E+00  sigma(3 2)=  0.00000000E+00
- sigma(2 2)=  2.52121795E+00  sigma(3 1)=  0.00000000E+00
- sigma(3 3)= -8.74128751E-01  sigma(2 1)=  0.00000000E+00

================================================================================
== DATASET  2 ==================================================================
-   nproc =    1

 Exchange-correlation functional for the present dataset will be:
  LDA: new Teter (4/93) with spin-polarized option - ixc=1
 Citation for XC functional:
  S. Goedecker, M. Teter, J. Huetter, PRB 54, 1703 (1996)

 Real(R)+Recip(G) space primitive vectors, cartesian coordinates (Bohr,Bohr^-1):
 R(1)=  3.7527955 -3.7527954  0.0000000  G(1)=  0.1332340 -0.1332340  0.0000000
 R(2)=  3.7527955  3.7527955  0.0000000  G(2)=  0.1332340  0.1332340  0.0000000
 R(3)=  0.0000000  0.0000000 30.0223636  G(3)=  0.0000000  0.0000000  0.0333085
 Unit cell volume ucvol=  8.4563834E+02 bohr^3
 Angles (23,13,12)=  9.00000000E+01  9.00000000E+01  9.00000000E+01 degrees

 getcut: wavevector=  0.0000  0.0000  0.0000  ngfft=  24  24 125
         ecut(hartree)=     20.000   => boxcut(ratio)=   2.05162

--- Pseudopotential description ------------------------------------------------
- pspini: atom type   1  psp file is ../psps/13al.981214.fhi
- pspatm: opening atomic psp file    ../psps/13al.981214.fhi
- Aluminum, fhi98PP : Hamann-type, LDA CA PerdewWang, l=2 local
- 13.00000   3.00000    981214                znucl, zion, pspdat
    6    7    2    2       493   0.00000      pspcod,pspxc,lmax,lloc,mmax,r2well
  No XC core correction.
  1.024700          amesh (Hamman grid)
 pspatm: epsatm=    1.36305739
         --- l  ekb(1:nproj) -->
             0    1.768744
             1    0.900554
 pspatm: atomic psp has been read  and splines computed

   1.47210198E+02                                ecore*ucvol(ha*bohr**3)
--------------------------------------------------------------------------------

_setup2: Arith. and geom. avg. npw (full set) are    3613.594    3613.553

================================================================================

     iter   Etot(hartree)      deltaE(h)  residm     vres2
 ETOT  1  -12.343248916541    -1.234E+01 6.255E-03 1.014E+04
 ETOT  2  -12.534971016606    -1.917E-01 4.220E-04 1.345E+03
 ETOT  3  -12.561765373647    -2.679E-02 1.165E-04 7.167E+00
 ETOT  4  -12.561930339146    -1.650E-04 2.911E-05 1.235E-01
 ETOT  5  -12.561933090674    -2.752E-06 9.971E-06 1.809E-03
 ETOT  6  -12.561933144587    -5.391E-08 3.632E-06 2.533E-04
 ETOT  7  -12.561933151948    -7.361E-09 1.309E-06 1.637E-06

 At SCF step    7, etot is converged : 
  for the second time, diff in etot=  7.361E-09 < toldfe=  1.000E-06

 Cartesian components of stress tensor (hartree/bohr^3)
  sigma(1 1)=  7.05476994E-05  sigma(3 2)=  0.00000000E+00
  sigma(2 2)=  7.05476994E-05  sigma(3 1)=  0.00000000E+00
  sigma(3 3)= -3.77839506E-06  sigma(2 1)=  0.00000000E+00

 Integrated electronic density in atomic spheres:
 ------------------------------------------------
 Atom  Sphere_radius  Integrated_density
    1        2.00000          0.87356696
    2        2.00000          0.92488610
    3        2.00000          0.92584373
    4        2.00000          0.93348161
    5        2.00000          0.91880105
    6        2.00000          0.88488348
================================================================================

 ----iterations are completed or convergence reached----

 Mean square residual over all n,k,spin=   7.9162E-09; max=  1.3088E-06
 reduced coordinates (array xred) for    6 atoms
       0.000000000000      0.000000000000      0.000000000000
      -0.500000000000      0.500000000000      0.125000000000
       0.000000000000      0.000000000000      0.250000000000
      -0.500000000000      0.500000000000      0.375000000000
       0.000000000000      0.000000000000      0.500000000000
      -0.500000000000      0.500000000000      0.625000000000
 rms dE/dt=  2.0160E-02; max dE/dt=  5.4385E-02; dE/dt below (all hartree)
    1       0.000000000000      0.000000000000      0.054385192720
    2       0.000000000000      0.000000000000     -0.021095149062
    3       0.000000000000      0.000000000000     -0.015968139462
    4       0.000000000000      0.000000000000      0.015968139462
    5       0.000000000000      0.000000000000      0.021095149062
    6       0.000000000000      0.000000000000     -0.054385192720

 cartesian coordinates (angstrom) at end:
    1      0.00000000000000     0.00000000000000     0.00000000000000
    2      0.00000000000000     1.98589382064025     1.98589382064025
    3      0.00000000000000     0.00000000000000     3.97178764128050
    4      0.00000000000000     1.98589382064025     5.95768146192076
    5      0.00000000000000     0.00000000000000     7.94357528256101
    6      0.00000000000000     1.98589382064025     9.92946910320126

 cartesian forces (hartree/bohr) at end:
    1     -0.00000000000000    -0.00000000000000    -0.00181148937653
    2     -0.00000000000000    -0.00000000000000     0.00070264784421
    3     -0.00000000000000    -0.00000000000000     0.00053187482754
    4     -0.00000000000000    -0.00000000000000    -0.00053187482754
    5     -0.00000000000000    -0.00000000000000    -0.00070264784421
    6     -0.00000000000000    -0.00000000000000     0.00181148937653
 frms,max,avg= 6.7149076E-04 1.8114894E-03   0.000E+00  0.000E+00  0.000E+00 h/b

 cartesian forces (eV/Angstrom) at end:
    1     -0.00000000000000    -0.00000000000000    -0.09315052119211
    2     -0.00000000000000    -0.00000000000000     0.03613160184693
    3     -0.00000000000000    -0.00000000000000     0.02735010099231
    4     -0.00000000000000    -0.00000000000000    -0.02735010099231
    5     -0.00000000000000    -0.00000000000000    -0.03613160184693
    6     -0.00000000000000    -0.00000000000000     0.09315052119211
 frms,max,avg= 3.4529440E-02 9.3150521E-02   0.000E+00  0.000E+00  0.000E+00 e/A
 length scales=  7.505590900000  7.505590900000  7.505590900000 bohr
              =  3.971787641281  3.971787641281  3.971787641281 angstroms
 prteigrs : about to open file tbase4_xo_DS2_EIG
 Fermi (or HOMO) energy (hartree) =   0.17918   Average Vxc (hartree)=  -0.29975
 Eigenvalues (hartree) for nkpt=  20  k points:
 kpt#   1, nband= 12, wtk=  0.03125, kpt= -0.0625  0.0000  0.0000 (reduced coord)
  -0.23093   -0.20584   -0.16441   -0.10867   -0.04059    0.04346    0.09554    0.21239
   0.26272    0.33039    0.35287    0.38940
      occupation numbers for kpt#   1
   2.00000    2.00000    2.00000    2.00000    2.00000    2.00005    2.02731    0.03545
   0.00377    0.00000    0.00000    0.00000
 prteigrs : prtvol=0 or 1, do not print more k-points.


--------------------------------------------------------------------------------
 Components of total free energy (in Hartree) :

    Kinetic energy  =  5.06368039417213E+00
    Hartree energy  =  1.03755662674122E+01
    XC energy       = -4.76466361065525E+00
    Ewald energy    = -4.18136889917539E+00
    PspCore energy  =  1.74081745690762E-01
    Loc. psp. energy= -2.19485654748315E+01
    NL   psp  energy=  2.71952818044090E+00
    >>>>> Internal E= -1.25617413969461E+01

    -kT*entropy     = -1.91755001471405E-04
    >>>>>>>>> Etotal= -1.25619331519476E+01

 Other information on the energy :
    Total energy(eV)= -3.41827585021305E+02 ; Band energy (Ha)=   3.7835431404E-01
--------------------------------------------------------------------------------

 Cartesian components of stress tensor (hartree/bohr^3)
  sigma(1 1)=  7.05476994E-05  sigma(3 2)=  0.00000000E+00
  sigma(2 2)=  7.05476994E-05  sigma(3 1)=  0.00000000E+00
  sigma(3 3)= -3.77839506E-06  sigma(2 1)=  0.00000000E+00

-Cartesian components of stress tensor (GPa)         [Pressure= -1.3467E+00 GPa]
- sigma(1 1)=  2.07558462E+00  sigma(3 2)=  0.00000000E+00
- sigma(2 2)=  2.07558462E+00  sigma(3 1)=  0.00000000E+00
- sigma(3 3)= -1.11164202E-01  sigma(2 1)=  0.00000000E+00

================================================================================
== DATASET  3 ==================================================================
-   nproc =    1

 Exchange-correlation functional for the present dataset will be:
  LDA: new Teter (4/93) with spin-polarized option - ixc=1
 Citation for XC functional:
  S. Goedecker, M. Teter, J. Huetter, PRB 54, 1703 (1996)

 Real(R)+Recip(G) space primitive vectors, cartesian coordinates (Bohr,Bohr^-1):
 R(1)=  3.7527955 -3.7527954  0.0000000  G(1)=  0.1332340 -0.1332340  0.0000000
 R(2)=  3.7527955  3.7527955  0.0000000  G(2)=  0.1332340  0.1332340  0.0000000
 R(3)=  0.0000000  0.0000000 33.7751591  G(3)=  0.0000000  0.0000000  0.0296076
 Unit cell volume ucvol=  9.5134313E+02 bohr^3
 Angles (23,13,12)=  9.00000000E+01  9.00000000E+01  9.00000000E+01 degrees

 getcut: wavevector=  0.0000  0.0000  0.0000  ngfft=  24  24 144
         ecut(hartree)=     20.000   => boxcut(ratio)=   2.11780

--- Pseudopotential description ------------------------------------------------
- pspini: atom type   1  psp file is ../psps/13al.981214.fhi
- pspatm: opening atomic psp file    ../psps/13al.981214.fhi
- Aluminum, fhi98PP : Hamann-type, LDA CA PerdewWang, l=2 local
- 13.00000   3.00000    981214                znucl, zion, pspdat
    6    7    2    2       493   0.00000      pspcod,pspxc,lmax,lloc,mmax,r2well
  No XC core correction.
  1.024700          amesh (Hamman grid)
 pspatm: epsatm=    1.36305739
         --- l  ekb(1:nproj) -->
             0    1.768744
             1    0.900554
 pspatm: atomic psp has been read  and splines computed

   2.00369436E+02                                ecore*ucvol(ha*bohr**3)
--------------------------------------------------------------------------------

_setup2: Arith. and geom. avg. npw (full set) are    4061.906    4061.862

================================================================================

     iter   Etot(hartree)      deltaE(h)  residm     vres2
 ETOT  1  -14.389695944535    -1.439E+01 5.808E-03 1.594E+04
 ETOT  2  -14.645513276186    -2.558E-01 3.937E-03 9.372E+02
 ETOT  3  -14.660746411310    -1.523E-02 5.389E-04 5.481E+00
 ETOT  4  -14.660859967249    -1.136E-04 1.014E-04 1.223E-01
 ETOT  5  -14.660862451489    -2.484E-06 1.913E-05 6.514E-04
 ETOT  6  -14.660862562399    -1.109E-07 2.197E-05 1.093E-04
 ETOT  7  -14.660862597417    -3.502E-08 5.458E-06 6.905E-06

 At SCF step    7, etot is converged : 
  for the second time, diff in etot=  3.502E-08 < toldfe=  1.000E-06

 Cartesian components of stress tensor (hartree/bohr^3)
  sigma(1 1)=  6.37834400E-05  sigma(3 2)=  0.00000000E+00
  sigma(2 2)=  6.37834400E-05  sigma(3 1)=  0.00000000E+00
  sigma(3 3)= -9.44678160E-06  sigma(2 1)=  0.00000000E+00

 Integrated electronic density in atomic spheres:
 ------------------------------------------------
 Atom  Sphere_radius  Integrated_density
    1        2.00000          0.88582019
    2        2.00000          0.93076324
    3        2.00000          0.93319796
    4        2.00000          0.93255286
    5        2.00000          0.93319796
    6        2.00000          0.93076324
    7        2.00000          0.88582019
================================================================================

 ----iterations are completed or convergence reached----

 Mean square residual over all n,k,spin=   3.0982E-08; max=  5.4584E-06
 reduced coordinates (array xred) for    7 atoms
       0.000000000000      0.000000000000      0.000000000000
      -0.500000000000      0.500000000000      0.111111111111
       0.000000000000      0.000000000000      0.222222222222
      -0.500000000000      0.500000000000      0.333333333333
       0.000000000000      0.000000000000      0.444444444444
      -0.500000000000      0.500000000000      0.555555555556
       0.000000000000      0.000000000000      0.666666666667
 rms dE/dt=  1.8836E-02; max dE/dt=  4.5540E-02; dE/dt below (all hartree)
    1       0.000000000000      0.000000000000      0.045539712709
    2       0.000000000000      0.000000000000     -0.034741540173
    3       0.000000000000      0.000000000000     -0.021080900502
    4       0.000000000000      0.000000000000      0.000000000000
    5       0.000000000000      0.000000000000      0.021080900502
    6       0.000000000000      0.000000000000      0.034741540173
    7       0.000000000000      0.000000000000     -0.045539712709

 cartesian coordinates (angstrom) at end:
    1      0.00000000000000     0.00000000000000     0.00000000000000
    2      0.00000000000000     1.98589382064025     1.98589382064025
    3      0.00000000000000     0.00000000000000     3.97178764128051
    4      0.00000000000000     1.98589382064025     5.95768146192076
    5      0.00000000000000     0.00000000000000     7.94357528256101
    6      0.00000000000000     1.98589382064025     9.92946910320127
    7      0.00000000000000     0.00000000000000    11.91536292384152

 cartesian forces (hartree/bohr) at end:
    1     -0.00000000000000    -0.00000000000000    -0.00134831971159
    2     -0.00000000000000    -0.00000000000000     0.00102861218570
    3     -0.00000000000000    -0.00000000000000     0.00062415399645
    4     -0.00000000000000    -0.00000000000000    -0.00000000000000
    5     -0.00000000000000    -0.00000000000000    -0.00062415399645
    6     -0.00000000000000    -0.00000000000000    -0.00102861218570
    7     -0.00000000000000    -0.00000000000000     0.00134831971159
 frms,max,avg= 5.5768034E-04 1.3483197E-03   0.000E+00  0.000E+00  0.000E+00 h/b

 cartesian forces (eV/Angstrom) at end:
    1     -0.00000000000000    -0.00000000000000    -0.06933338141260
    2     -0.00000000000000    -0.00000000000000     0.05289336081336
    3     -0.00000000000000    -0.00000000000000     0.03209528624731
    4     -0.00000000000000    -0.00000000000000    -0.00000000000000
    5     -0.00000000000000    -0.00000000000000    -0.03209528624731
    6     -0.00000000000000    -0.00000000000000    -0.05289336081336
    7     -0.00000000000000    -0.00000000000000     0.06933338141260
 frms,max,avg= 2.8677074E-02 6.9333381E-02   0.000E+00  0.000E+00  0.000E+00 e/A
 length scales=  7.505590900000  7.505590900000  7.505590900000 bohr
              =  3.971787641281  3.971787641281  3.971787641281 angstroms
 prteigrs : about to open file tbase4_xo_DS3_EIG
 Fermi (or HOMO) energy (hartree) =   0.19218   Average Vxc (hartree)=  -0.30490
 Eigenvalues (hartree) for nkpt=  20  k points:
 kpt#   1, nband= 15, wtk=  0.03125, kpt= -0.0625  0.0000  0.0000 (reduced coord)
  -0.22020   -0.20130   -0.17022   -0.12740   -0.07480   -0.01173    0.05945    0.11110
   0.19936    0.29479    0.31846    0.34135    0.35876    0.38658    0.41228
      occupation numbers for kpt#   1
   2.00000    2.00000    2.00000    2.00000    2.00000    2.00000    2.00008    2.03346
   0.55770    0.00096    0.00007    0.00000    0.00000    0.00000    0.00000
 prteigrs : prtvol=0 or 1, do not print more k-points.


--------------------------------------------------------------------------------
 Components of total free energy (in Hartree) :

    Kinetic energy  =  5.94487455475036E+00
    Hartree energy  =  1.27242324279857E+01
    XC energy       = -5.57991739321934E+00
    Ewald energy    = -4.52345518556107E+00
    PspCore energy  =  2.10617420712280E-01
    Loc. psp. energy= -2.66053921381406E+01
    NL   psp  energy=  3.16896546350783E+00
    >>>>> Internal E= -1.46600748499649E+01

    -kT*entropy     = -7.87747452193738E-04
    >>>>>>>>> Etotal= -1.46608625974171E+01

 Other information on the energy :
    Total energy(eV)= -3.98942359857034E+02 ; Band energy (Ha)=   6.8713982958E-01
--------------------------------------------------------------------------------

 Cartesian components of stress tensor (hartree/bohr^3)
  sigma(1 1)=  6.37834400E-05  sigma(3 2)=  0.00000000E+00
  sigma(2 2)=  6.37834400E-05  sigma(3 1)=  0.00000000E+00
  sigma(3 3)= -9.44678160E-06  sigma(2 1)=  0.00000000E+00

-Cartesian components of stress tensor (GPa)         [Pressure= -1.1584E+00 GPa]
- sigma(1 1)=  1.87657328E+00  sigma(3 2)=  0.00000000E+00
- sigma(2 2)=  1.87657328E+00  sigma(3 1)=  0.00000000E+00
- sigma(3 3)= -2.77933864E-01  sigma(2 1)=  0.00000000E+00

== END DATASET(S) ==============================================================
================================================================================
  
 -outvars: echo values of variables after computation  --------
            acell      7.5055909000E+00  7.5055909000E+00  7.5055909000E+00 Bohr
              amu      2.69815390E+01
      chksymbreak           0
             ecut      2.00000000E+01 Hartree
           etotal1    -1.0459719798E+01
           etotal2    -1.2561933152E+01
           etotal3    -1.4660862597E+01
            fcart1    -0.0000000000E+00 -0.0000000000E+00 -1.5575466596E-03
                      -0.0000000000E+00 -0.0000000000E+00  7.7214181203E-04
                      -0.0000000000E+00 -0.0000000000E+00  8.6736173799E-20
                      -0.0000000000E+00 -0.0000000000E+00 -7.7214181203E-04
                      -0.0000000000E+00 -0.0000000000E+00  1.5575466596E-03
            fcart2    -0.0000000000E+00 -0.0000000000E+00 -1.8114893765E-03
                      -0.0000000000E+00 -0.0000000000E+00  7.0264784421E-04
                      -0.0000000000E+00 -0.0000000000E+00  5.3187482754E-04
                      -0.0000000000E+00 -0.0000000000E+00 -5.3187482754E-04
                      -0.0000000000E+00 -0.0000000000E+00 -7.0264784421E-04
                      -0.0000000000E+00 -0.0000000000E+00  1.8114893765E-03
            fcart3    -0.0000000000E+00 -0.0000000000E+00 -1.3483197116E-03
                      -0.0000000000E+00 -0.0000000000E+00  1.0286121857E-03
                      -0.0000000000E+00 -0.0000000000E+00  6.2415399645E-04
                      -0.0000000000E+00 -0.0000000000E+00 -0.0000000000E+00
                      -0.0000000000E+00 -0.0000000000E+00 -6.2415399645E-04
                      -0.0000000000E+00 -0.0000000000E+00 -1.0286121857E-03
                      -0.0000000000E+00 -0.0000000000E+00  1.3483197116E-03
-          fftalg         312
           iprcel          45
           jdtset        1    2    3
              kpt     -6.25000000E-02  0.00000000E+00  0.00000000E+00
                      -1.87500000E-01  0.00000000E+00  0.00000000E+00
                      -1.25000000E-01  6.25000000E-02  0.00000000E+00
                      -3.12500000E-01  0.00000000E+00  0.00000000E+00
                      -2.50000000E-01  6.25000000E-02  0.00000000E+00
                      -1.87500000E-01  1.25000000E-01  0.00000000E+00
                      -4.37500000E-01  0.00000000E+00  0.00000000E+00
                      -3.75000000E-01  6.25000000E-02  0.00000000E+00
                      -3.12500000E-01  1.25000000E-01  0.00000000E+00
                      -2.50000000E-01  1.87500000E-01  0.00000000E+00
                       5.00000000E-01  6.25000000E-02  0.00000000E+00
                      -4.37500000E-01  1.25000000E-01  0.00000000E+00
                      -3.75000000E-01  1.87500000E-01  0.00000000E+00
                      -3.12500000E-01  2.50000000E-01  0.00000000E+00
                       5.00000000E-01  1.87500000E-01  0.00000000E+00
                      -4.37500000E-01  2.50000000E-01  0.00000000E+00
                      -3.75000000E-01  3.12500000E-01  0.00000000E+00
                       5.00000000E-01  3.12500000E-01  0.00000000E+00
                      -4.37500000E-01  3.75000000E-01  0.00000000E+00
                       5.00000000E-01  4.37500000E-01  0.00000000E+00
         kptrlatt        8    8    0     -8    8    0      0    0    1
          kptrlen      6.00447272E+01
P           mkmem          20
            natom1          5
            natom2          6
            natom3          7
            nband1         11
            nband2         12
            nband3         15
           ndtset           3
            ngfft1         24      24     108
            ngfft2         24      24     125
            ngfft3         24      24     144
             nkpt          20
            nstep          10
             nsym          16
           ntypat           1
              occ1     2.000000  2.000000  2.000000  2.000000  2.000007  2.057072
                       0.077507  0.000001  0.000001  0.000000  0.000000
                       2.000000  2.000000  2.000000  2.000000  2.000199  2.135313
                       0.156189  0.000465  0.002252  0.000403  0.000000
                       2.000000  2.000000  2.000000  2.000000  2.000042  2.098233
                       0.014841  0.002618  0.000141  0.000000  0.000000
                       2.000000  2.000000  2.000000  2.000000  2.008565  2.027908
                       2.111100  1.473007  1.104932  0.005050  0.002486
                       2.000000  2.000000  2.000000  2.000000  2.002869  2.044262
                       2.041248  0.894805  0.000328  0.005249  0.000083
                       2.000000  2.000000  2.000000  2.000000  2.000825  2.132157
                       0.069786  0.003065  0.004083  0.000240  0.000030
                       2.000000  2.000000  2.000000  2.000000  2.000001  2.001051
                       2.002685  2.032032  1.831059  0.001045  0.003108
                       2.000000  2.000000  2.000000  2.000011  2.000012  2.001698
                       2.110922  2.141461  0.543459  0.112268  0.000923
                       2.000000  2.000000  2.000000  2.000000  2.021147  2.058171
                       2.140295  1.046169  0.709426  0.004923  0.001288
                       2.000000  2.000000  2.000000  2.000000  2.022641  1.653234
                       1.465336  0.357924  0.004834  0.005249  0.001060
                       2.000000  2.000000  2.000000  2.000000  2.000006  2.000009
                       2.038803  2.076913  0.669359  0.051177  0.005244
                       2.000000  2.000000  2.000000  2.000000  2.000004  2.003583
                       2.008040  1.802404  1.477853  0.001479  0.005200
                       2.000000  2.000000  2.000000  2.000256  2.000258  2.014098
                       2.114867  1.976290  0.086811  0.002021  0.000235
                       2.000000  2.000000  2.000000  2.000058  2.113161  2.133803
                       1.875352  0.119446  0.086803  0.009691  0.005189
                       2.000000  2.000000  2.000000  2.000000  2.000142  2.000245
                       2.118405  2.141831  0.128328  0.000084  0.002320
                       2.000000  2.000000  2.000002  2.000008  2.000398  2.054921
                       2.082000  0.629611  0.321395  0.003657  0.002107
                       2.000000  2.000000  2.000001  2.017112  2.025049  2.129248
                       1.051131  0.809386  0.282255  0.003091  0.004710
                       2.000000  2.000000  2.000011  2.000030  2.015722  2.024512
                       1.648274  1.290059  0.003215  0.005258  0.004898
                       2.000000  2.000003  2.002024  2.007580  2.047900  1.847415
                       1.763255  1.368413  0.141308  0.000010  0.004003
                       2.000559  2.000624  2.018629  2.025836  2.053300  1.991203
                       1.778397  1.678404  0.662778  0.214102  0.013384
              occ2     2.000000  2.000000  2.000000  2.000000  2.000000  2.000053
                       2.027314  0.035452  0.003770  0.000001  0.000000  0.000000
                       2.000000  2.000000  2.000000  2.000000  2.000000  2.000989
                       2.097813  0.215422  0.002286  0.001888  0.003804  0.000743
                       2.000000  2.000000  2.000000  2.000000  2.000000  2.000246
                       2.056625  0.004159  0.003199  0.002247  0.000460  0.000003
                       2.000000  2.000000  2.000000  2.000000  2.000001  2.006419
                       2.056038  2.060096  2.042397  1.826858  0.207210  0.004197
                       2.000000  2.000000  2.000000  2.000000  2.000000  2.009870
                       2.132563  2.088949  1.470905  0.123785  0.005092  0.004793
                       2.000000  2.000000  2.000000  2.000000  2.000000  2.003429
                       2.135315  0.108729  0.000014  0.004206  0.002912  0.000343
                       2.000000  2.000000  2.000000  2.000000  2.000000  2.000000
                       2.000057  2.008028  2.034568  1.746135  1.075548  0.038197
                       2.000000  2.000000  2.000000  2.000000  2.000006  2.000139
                       2.000399  2.024647  2.128877  2.000865  0.582275  0.023715
                       2.000000  2.000000  2.000000  2.000000  2.000008  2.016424
                       2.095123  2.102699  1.837145  1.474254  0.071271  0.002577
                       2.000000  2.000000  2.000000  2.000000  2.000001  2.053637
                       1.811888  1.772707  0.830390  0.011261  0.005214  0.002409
                       2.000000  2.000000  2.000000  2.000000  2.000000  2.000000
                       2.000385  2.000385  2.129588  2.129588  0.094453  0.094453
                       2.000000  2.000000  2.000000  2.000000  2.000000  2.000003
                       2.000256  2.020972  2.067899  1.365301  0.662846  0.003505
                       2.000000  2.000000  2.000000  2.000000  2.000148  2.001987
                       2.004821  2.090437  1.784641  1.391600  0.098885  0.001140
                       2.000000  2.000000  2.000000  2.000000  2.000790  2.098865
                       2.102945  2.032363  0.864455  0.310246  0.020714  0.000511
                       2.000000  2.000000  2.000000  2.000000  2.000002  2.000002
                       2.004718  2.004718  2.065001  2.065001  0.000658  0.000658
                       2.000000  2.000000  2.000000  2.000001  2.000056  2.000365
                       2.009498  2.127008  2.119790  0.254518  0.038831  0.005241
                       2.000000  2.000000  2.000000  2.000083  2.012104  2.065272
                       2.095592  1.973562  0.841571  0.164964  0.161125  0.059413
                       2.000000  2.000000  2.000002  2.000002  2.000891  2.000891
                       2.104001  2.104001  0.716812  0.716812  0.004966  0.004966
                       2.000000  2.000000  2.000212  2.001318  2.016893  2.058941
                       2.141490  1.525598  1.257731  0.739618  0.402955  0.000099
                       2.000354  2.000354  2.006199  2.006199  2.111607  2.111607
                       1.880027  1.880027  1.188220  1.188220  0.939516  0.939516
              occ3     2.000000  2.000000  2.000000  2.000000  2.000000  2.000000
                       2.000083  2.033463  0.557704  0.000959  0.000066  0.000002
                       0.000000  0.000000  0.000000
                       2.000000  2.000000  2.000000  2.000000  2.000000  2.000000
                       2.001433  2.108377  0.346898  0.031613  0.021385  0.004789
                       0.000779  0.000076  0.000003
                       2.000000  2.000000  2.000000  2.000000  2.000000  2.000000
                       2.000374  2.066136  0.266524  0.003671  0.001502  0.000249
                       0.000054  0.000013  0.000000
                       2.000000  2.000000  2.000000  2.000000  2.000000  2.000018
                       2.005185  2.031937  2.070389  2.138852  1.787647  1.287380
                       0.012521  0.005258  0.001278
                       2.000000  2.000000  2.000000  2.000000  2.000000  2.000000
                       2.013026  2.120645  2.109892  1.763079  0.577795  0.000217
                       0.000026  0.001474  0.000007
                       2.000000  2.000000  2.000000  2.000000  2.000000  2.000000
                       2.004752  2.140036  0.168683  0.008060  0.005275  0.005258
                       0.000458  0.000091  0.000070
                       2.000000  2.000000  2.000000  2.000000  2.000000  2.000000
                       2.000002  2.000019  2.001406  2.034726  2.106750  1.264331
                       0.878871  0.011145  0.005220
                       2.000000  2.000000  2.000000  2.000000  2.000000  2.000004
                       2.000077  2.001742  2.004368  2.106535  2.116907  1.271896
                       0.565133  0.000333  0.001507
                       2.000000  2.000000  2.000000  2.000000  2.000000  2.000093
                       2.013656  2.062251  2.113839  2.127015  1.422980  0.881810
                       0.000149  0.004488  0.000546
                       2.000000  2.000000  2.000000  2.000000  2.000000  2.000019
                       2.064283  1.837939  1.742501  1.173071  0.174235  0.002640
                       0.003782  0.003059  0.002620
                       2.000000  2.000000  2.000000  2.000000  2.000000  2.000000
                       2.000002  2.000004  2.003508  2.006520  2.137646  2.051768
                       0.204296  0.002093  0.004995
                       2.000000  2.000000  2.000000  2.000000  2.000000  2.000000
                       2.000013  2.000098  2.004559  2.068778  2.139499  0.830414
                       0.497089  0.000017  0.003998
                       2.000000  2.000000  2.000000  2.000000  2.000003  2.000108
                       2.001192  2.015382  2.028436  2.125330  1.715619  0.490210
                       0.093121  0.005250  0.000666
                       2.000000  2.000000  2.000000  2.000000  2.000000  2.004937
                       2.089902  2.140569  1.984269  1.609833  0.286949  0.140183
                       0.034349  0.000380  0.005257
                       2.000000  2.000000  2.000000  2.000000  2.000000  2.000000
                       2.000054  2.000129  2.025804  2.038999  1.854518  1.499982
                       0.009791  0.004247  0.003230
                       2.000000  2.000000  2.000000  2.000001  2.000002  2.000017
                       2.001063  2.005191  2.060343  2.113641  1.763578  0.067291
                       0.014499  0.004734  0.002959
                       2.000000  2.000000  2.000000  2.000000  2.001343  2.009907
                       2.043227  2.140709  2.141498  1.186097  0.895297  0.156807
                       0.140905  0.003514  0.000364
                       2.000000  2.000000  2.000000  2.000000  2.000041  2.000107
                       2.008569  2.016583  2.134527  2.109570  0.355822  0.149076
                       0.004359  0.004922  0.003918
                       2.000000  2.000000  2.000013  2.001012  2.003723  2.008372
                       2.076722  2.138473  1.912554  1.607053  1.006793  0.353686
                       0.166535  0.051763  0.002352
                       2.000257  2.000269  2.002391  2.002776  2.035910  2.047452
                       2.113316  2.064215  1.940243  1.915008  1.383489  1.177300
                       0.577877  0.392848  0.250408
           occopt           4
            rprim1     5.0000000000E-01 -5.0000000000E-01  0.0000000000E+00
                       5.0000000000E-01  5.0000000000E-01  0.0000000000E+00
                       0.0000000000E+00  0.0000000000E+00  3.5000000000E+00
            rprim2     5.0000000000E-01 -5.0000000000E-01  0.0000000000E+00
                       5.0000000000E-01  5.0000000000E-01  0.0000000000E+00
                       0.0000000000E+00  0.0000000000E+00  4.0000000000E+00
            rprim3     5.0000000000E-01 -5.0000000000E-01  0.0000000000E+00
                       5.0000000000E-01  5.0000000000E-01  0.0000000000E+00
                       0.0000000000E+00  0.0000000000E+00  4.5000000000E+00
           shiftk      5.00000000E-01  5.00000000E-01  0.00000000E+00
          spgroup1        123
          spgroup2        129
          spgroup3        123
           strten1     8.5694470630E-05  8.5694470630E-05 -2.9711037352E-05
                       0.0000000000E+00  0.0000000000E+00  0.0000000000E+00
           strten2     7.0547699354E-05  7.0547699354E-05 -3.7783950596E-06
                       0.0000000000E+00  0.0000000000E+00  0.0000000000E+00
           strten3     6.3783440015E-05  6.3783440015E-05 -9.4467816038E-06
                       0.0000000000E+00  0.0000000000E+00  0.0000000000E+00
           symrel      1  0  0   0  1  0   0  0  1      -1  0  0   0 -1  0   0  0 -1
                      -1  0  0   0  1  0   0  0 -1       1  0  0   0 -1  0   0  0  1
                      -1  0  0   0 -1  0   0  0  1       1  0  0   0  1  0   0  0 -1
                       1  0  0   0 -1  0   0  0 -1      -1  0  0   0  1  0   0  0  1
                       0  1  0   1  0  0   0  0  1       0 -1  0  -1  0  0   0  0 -1
                       0 -1  0   1  0  0   0  0 -1       0  1  0  -1  0  0   0  0  1
                       0 -1  0  -1  0  0   0  0  1       0  1  0   1  0  0   0  0 -1
                       0  1  0  -1  0  0   0  0 -1       0 -1  0   1  0  0   0  0  1
            tnons1     0.0000000  0.0000000  0.0000000     0.0000000  0.0000000 -0.4285714
                       0.0000000  0.0000000 -0.4285714     0.0000000  0.0000000  0.0000000
                       0.0000000  0.0000000  0.0000000     0.0000000  0.0000000 -0.4285714
                       0.0000000  0.0000000 -0.4285714     0.0000000  0.0000000  0.0000000
                       0.0000000  0.0000000  0.0000000     0.0000000  0.0000000 -0.4285714
                       0.0000000  0.0000000 -0.4285714     0.0000000  0.0000000  0.0000000
                       0.0000000  0.0000000  0.0000000     0.0000000  0.0000000 -0.4285714
                       0.0000000  0.0000000 -0.4285714     0.0000000  0.0000000  0.0000000
            tnons2     0.0000000  0.0000000  0.0000000     0.5000000  0.5000000 -0.3750000
                       0.5000000  0.5000000 -0.3750000     0.0000000  0.0000000  0.0000000
                       0.0000000  0.0000000  0.0000000     0.5000000  0.5000000 -0.3750000
                       0.5000000  0.5000000 -0.3750000     0.0000000  0.0000000  0.0000000
                       0.0000000  0.0000000  0.0000000     0.5000000  0.5000000 -0.3750000
                       0.5000000  0.5000000 -0.3750000     0.0000000  0.0000000  0.0000000
                       0.0000000  0.0000000  0.0000000     0.5000000  0.5000000 -0.3750000
                       0.5000000  0.5000000 -0.3750000     0.0000000  0.0000000  0.0000000
            tnons3     0.0000000  0.0000000  0.0000000     0.0000000  0.0000000 -0.3333333
                       0.0000000  0.0000000 -0.3333333     0.0000000  0.0000000  0.0000000
                       0.0000000  0.0000000  0.0000000     0.0000000  0.0000000 -0.3333333
                       0.0000000  0.0000000 -0.3333333     0.0000000  0.0000000  0.0000000
                       0.0000000  0.0000000  0.0000000     0.0000000  0.0000000 -0.3333333
                       0.0000000  0.0000000 -0.3333333     0.0000000  0.0000000  0.0000000
                       0.0000000  0.0000000  0.0000000     0.0000000  0.0000000 -0.3333333
                       0.0000000  0.0000000 -0.3333333     0.0000000  0.0000000  0.0000000
           toldfe      1.00000000E-06 Hartree
           tsmear      4.00000000E-02 Hartree
            typat1     1  1  1  1  1
            typat2     1  1  1  1  1  1
            typat3     1  1  1  1  1  1  1
              wtk        0.03125    0.03125    0.06250    0.03125    0.06250    0.06250
                         0.03125    0.06250    0.06250    0.06250    0.03125    0.06250
                         0.06250    0.06250    0.03125    0.06250    0.06250    0.03125
                         0.06250    0.03125
           xangst1     0.0000000000E+00  0.0000000000E+00  0.0000000000E+00
                       0.0000000000E+00  1.9858938206E+00  1.9858938206E+00
                       0.0000000000E+00  0.0000000000E+00  3.9717876413E+00
                       0.0000000000E+00  1.9858938206E+00  5.9576814619E+00
                       0.0000000000E+00  0.0000000000E+00  7.9435752826E+00
           xangst2     0.0000000000E+00  0.0000000000E+00  0.0000000000E+00
                       0.0000000000E+00  1.9858938206E+00  1.9858938206E+00
                       0.0000000000E+00  0.0000000000E+00  3.9717876413E+00
                       0.0000000000E+00  1.9858938206E+00  5.9576814619E+00
                       0.0000000000E+00  0.0000000000E+00  7.9435752826E+00
                       0.0000000000E+00  1.9858938206E+00  9.9294691032E+00
           xangst3     0.0000000000E+00  0.0000000000E+00  0.0000000000E+00
                       0.0000000000E+00  1.9858938206E+00  1.9858938206E+00
                       0.0000000000E+00  0.0000000000E+00  3.9717876413E+00
                       0.0000000000E+00  1.9858938206E+00  5.9576814619E+00
                       0.0000000000E+00  0.0000000000E+00  7.9435752826E+00
                       0.0000000000E+00  1.9858938206E+00  9.9294691032E+00
                       0.0000000000E+00  0.0000000000E+00  1.1915362924E+01
            xcart1     0.0000000000E+00  0.0000000000E+00  0.0000000000E+00
                       0.0000000000E+00  3.7527954500E+00  3.7527954500E+00
                       0.0000000000E+00  0.0000000000E+00  7.5055909000E+00
                       0.0000000000E+00  3.7527954500E+00  1.1258386350E+01
                       0.0000000000E+00  0.0000000000E+00  1.5011181800E+01
            xcart2     0.0000000000E+00  0.0000000000E+00  0.0000000000E+00
                       0.0000000000E+00  3.7527954500E+00  3.7527954500E+00
                       0.0000000000E+00  0.0000000000E+00  7.5055909000E+00
                       0.0000000000E+00  3.7527954500E+00  1.1258386350E+01
                       0.0000000000E+00  0.0000000000E+00  1.5011181800E+01
                       0.0000000000E+00  3.7527954500E+00  1.8763977250E+01
            xcart3     0.0000000000E+00  0.0000000000E+00  0.0000000000E+00
                       0.0000000000E+00  3.7527954500E+00  3.7527954500E+00
                       0.0000000000E+00  0.0000000000E+00  7.5055909000E+00
                       0.0000000000E+00  3.7527954500E+00  1.1258386350E+01
                       0.0000000000E+00  0.0000000000E+00  1.5011181800E+01
                       0.0000000000E+00  3.7527954500E+00  1.8763977250E+01
                       0.0000000000E+00  0.0000000000E+00  2.2516772700E+01
             xred1     0.0000000000E+00  0.0000000000E+00  0.0000000000E+00
                      -5.0000000000E-01  5.0000000000E-01  1.4285714286E-01
                       0.0000000000E+00  0.0000000000E+00  2.8571428571E-01
                      -5.0000000000E-01  5.0000000000E-01  4.2857142857E-01
                       0.0000000000E+00  0.0000000000E+00  5.7142857143E-01
             xred2     0.0000000000E+00  0.0000000000E+00  0.0000000000E+00
                      -5.0000000000E-01  5.0000000000E-01  1.2500000000E-01
                       0.0000000000E+00  0.0000000000E+00  2.5000000000E-01
                      -5.0000000000E-01  5.0000000000E-01  3.7500000000E-01
                       0.0000000000E+00  0.0000000000E+00  5.0000000000E-01
                      -5.0000000000E-01  5.0000000000E-01  6.2500000000E-01
             xred3     0.0000000000E+00  0.0000000000E+00  0.0000000000E+00
                      -5.0000000000E-01  5.0000000000E-01  1.1111111111E-01
                       0.0000000000E+00  0.0000000000E+00  2.2222222222E-01
                      -5.0000000000E-01  5.0000000000E-01  3.3333333333E-01
                       0.0000000000E+00  0.0000000000E+00  4.4444444444E-01
                      -5.0000000000E-01  5.0000000000E-01  5.5555555556E-01
                       0.0000000000E+00  0.0000000000E+00  6.6666666667E-01
            znucl       13.00000

================================================================================


- Timing analysis has been suppressed with timopt=0



================================================================================

 Suggested references for the acknowledgment of ABINIT usage.

 The users of ABINIT have little formal obligations with respect to the ABINIT group
 (those specified in the GNU General Public License, http://www.gnu.org/copyleft/gpl.txt).
 However, it is common practice in the scientific literature,
 to acknowledge the efforts of people that have made the research possible.
 In this spirit, please find below suggested citations of work written by ABINIT developers,
 corresponding to implementations inside of ABINIT that you have used in the present run.
 Note also that it will be of great value to readers of publications presenting these results,
 to read papers enabling them to understand the theoretical formalism and details
 of the ABINIT implementation.
 For information on why they are suggested, see also http://www.abinit.org/about/?text=acknowledgments.
-
- [1] Preconditioning of self-consistent-field cycles in density functional theory : the extrapolar method
- P.-M. Anglade, X. Gonze, Phys. Rev. B 78, 045126 (2008).
- Comment : to be cited in case the extrapolar conditioner is used, i.e. non-vanishing iprcel.
-
- [2] Recent developments in the ABINIT software package.
- Computer Phys. Comm. 205, 106 (2016).
- X.Gonze, F.Jollet, F.Abreu Araujo, D.Adams, B.Amadon, T.Applencourt,
- C.Audouze, J.-M.Beuken, J.Bieder, A.Bokhanchuk, E.Bousquet, F.Bruneval
- D.Caliste, M.Cote, F.Dahm, F.Da Pieve, M.Delaveau, M.Di Gennaro,
- B.Dorado, C.Espejo, G.Geneste, L.Genovese, A.Gerossier, M.Giantomassi,
- Y.Gillet, D.R.Hamann, L.He, G.Jomard, J.Laflamme Janssen, S.Le Roux,
- A.Levitt, A.Lherbier, F.Liu, I.Lukacevic, A.Martin, C.Martins,
- M.J.T.Oliveira, S.Ponce, Y.Pouillon, T.Rangel, G.-M.Rignanese,
- A.H.Romero, B.Rousseau, O.Rubel, A.A.Shukri, M.Stankovski, M.Torrent,
- M.J.Van Setten, B.Van Troeye, M.J.Verstraete, D.Waroquier, J.Wiktor,
- B.Xue, A.Zhou, J.W.Zwanziger.
- Comment : the fourth generic paper describing the ABINIT project.
- Note that a version of this paper, that is not formatted for Computer Phys. Comm. 
- is available at http://www.abinit.org/about/ABINIT16.pdf .
- The licence allows the authors to put it on the Web.
-
- [3] Ab initio pseudopotentials for electronic structure calculations of poly-atomic systems, 
- using density-functional theory.
- M. Fuchs, M. Scheffler, Comput. Phys. Commun. 119, 67 (1999).
- Comment : Some pseudopotential generated using the FHI code were used.
-
- [4] ABINIT : First-principles approach of materials and nanosystem properties.
- Computer Phys. Comm. 180, 2582-2615 (2009).
- X. Gonze, B. Amadon, P.-M. Anglade, J.-M. Beuken, F. Bottin, P. Boulanger, F. Bruneval,
- D. Caliste, R. Caracas, M. Cote, T. Deutsch, L. Genovese, Ph. Ghosez, M. Giantomassi
- S. Goedecker, D.R. Hamann, P. Hermet, F. Jollet, G. Jomard, S. Leroux, M. Mancini, S. Mazevet,
- M.J.T. Oliveira, G. Onida, Y. Pouillon, T. Rangel, G.-M. Rignanese, D. Sangalli, R. Shaltaf,
- M. Torrent, M.J. Verstraete, G. Zerah, J.W. Zwanziger
- Comment : the third generic paper describing the ABINIT project.
- Note that a version of this paper, that is not formatted for Computer Phys. Comm. 
- is available at http://www.abinit.org/about/ABINIT_CPC_v10.pdf .
- The licence allows the authors to put it on the Web.
-
- [5] A brief introduction to the ABINIT software package.
- Z. Kristallogr. 220, 558-562 (2005).
- X. Gonze, G.-M. Rignanese, M. Verstraete, J.-M. Beuken, Y. Pouillon, R. Caracas, F. Jollet,
- M. Torrent, G. Zerah, M. Mikami, Ph. Ghosez, M. Veithen, J.-Y. Raty, V. Olevano, F. Bruneval,
- L. Reining, R. Godby, G. Onida, D.R. Hamann, and D.C. Allan.
- Comment : the second generic paper describing the ABINIT project. Note that this paper
- should be cited especially if you are using the GW part of ABINIT, as several authors
- of this part are not in the list of authors of the first or third paper.
- The .pdf of the latter paper is available at http://www.abinit.org/about/zfk_0505-06_558-562.pdf.
- Note that it should not redistributed (Copyright by Oldenburg Wissenshaftverlag,
- the licence allows the authors to put it on the Web).
-
- Proc.   0 individual time (sec): cpu=         99.2  wall=         96.1

================================================================================

 Calculation completed.
.Delivered  10 WARNINGs and   2 COMMENTs to log file.
+Overall time at end (sec) : cpu=         99.2  wall=         96.1
